 Gaussian 09, Revision D.01,
 Gaussian 09:  EM64L-G09RevD.01 24-Apr-2013

 ----------------------------------------------------------------------
 #um062x/cc-pvtz fchk NoSym Units=bohr scf=(xqc,tight) #int=ultrafine g
 uess=mix
 ----------------------------------------------------------------------

 -----
 title
 -----
 Symbolic Z-matrix:
 Charge =  0 Multiplicity = 1

                          Input orientation:
 ---------------------------------------------------------------------
 Center     Atomic      Atomic             Coordinates (Angstroms)
 Number     Number       Type             X           Y           Z
 ---------------------------------------------------------------------
      1          8           0       -1.289680    0.000000    0.030091
      2          6           0       -0.058230    0.000000    0.001570
      3          6           0        0.747548    0.000000    1.224981
      4          6           0        0.692415    0.000000   -1.258089
      5          1           0        0.247581    0.000000    2.174418
      6          1           0        1.820512    0.000000    1.194276
      7          1           0        0.150228    0.000000   -2.184788
      8          1           0        1.787972    0.000000   -1.285731
 ---------------------------------------------------------------------

 SCF Done:  E(UM062X) =  -191.814207418     A.U. after   18 cycles

 Alpha  occ. eigenvalues --  -19.59414 -10.63068 -10.58729 -10.58404  -1.14427
 Alpha  occ. eigenvalues --   -0.87131  -0.78406  -0.62806  -0.55878  -0.54977
 Alpha  occ. eigenvalues --   -0.48070  -0.47833  -0.47104  -0.32859  -0.30780
 Alpha virt. eigenvalues --   -0.08061   0.07099   0.10071   0.11471   0.11806
 Alpha virt. eigenvalues --    0.14920   0.18399   0.23526   0.28641   0.31344
 Alpha virt. eigenvalues --    0.31693   0.35560   0.36184   0.37359   0.41280

  Beta  occ. eigenvalues --  -19.59412 -10.63068 -10.58956 -10.58181  -1.14421
  Beta  occ. eigenvalues --   -0.87049  -0.78485  -0.62804  -0.55651  -0.55183
  Beta  occ. eigenvalues --   -0.48032  -0.47901  -0.47091  -0.32855  -0.30768
  Beta virt. eigenvalues --   -0.08078   0.07054   0.10068   0.11432   0.11812
  Beta virt. eigenvalues --    0.14879   0.18378   0.23526   0.28637   0.31321
  Beta virt. eigenvalues --    0.31640   0.35531   0.36066   0.37365   0.41264

 Mulliken charges and spin densities:
               1          2
     1  O   -0.357022   0.001091
     2  C    0.310996  -0.000028
     3  C   -0.346979   0.885393
     4  C   -0.343692  -0.887793
     5  H    0.197969  -0.025448
     6  H    0.173164  -0.036409
     7  H    0.199532   0.026226
     8  H    0.166031   0.036968
 Sum of Mulliken charges =   0.00000   0.00000

 Dipole moment (field-independent basis, Debye):
    X=              3.6743    Y=              0.0000    Z=             -0.0827  Tot=              3.6752
 Quadrupole moment (field-independent basis, Debye-Ang):
   XX=            -26.1047   YY=            -25.1982   ZZ=            -19.8399
   XY=              0.0000   XZ=              0.1291   YZ=              0.0000

 Normal termination of Gaussian 09 at Tue May 22 12:03:20 2018.
